============================== echo of input deck ==============================
echo

geometry
 H 0.00 0.00 0.00
end

basis
 * library cc-pvdz
end

scf
 uhf
 doublet
end

task scf energy
================================================================================

 Output coordinates in angstroms (scale by  1.889725989 to convert to a.u.)

  No.       Tag          Charge          X              Y              Z
 ---- ---------------- ---------- -------------- -------------- --------------
    1 H                    1.0000     0.00000000     0.00000000     0.00000000

         Total SCF energy =     -0.499278403420

 Vector    1  Occ=1.000000D+00  E=-4.992784D-01

 Vector    2  Occ=0.000000D+00  E= 5.724449D-01

 Vector    3  Occ=0.000000D+00  E= 1.443027D+00

 Vector    4  Occ=0.000000D+00  E= 1.443027D+00

 Vector    5  Occ=0.000000D+00  E= 1.443027D+00

 Vector    1  Occ=0.000000D+00  E= 7.334748D-02

 Vector    2  Occ=0.000000D+00  E= 7.532916D-01

 Vector    3  Occ=0.000000D+00  E= 1.573636D+00

 Vector    4  Occ=0.000000D+00  E= 1.573636D+00

 Vector    5  Occ=0.000000D+00  E= 1.573636D+00

       Multipole analysis of the density wrt the origin
       ------------------------------------------------

     L   x y z        total         alpha         beta         nuclear
     -   - - -        -----         -----         ----         -------
     0   0 0 0      0.000000     -1.000000      0.000000      1.000000

     1   1 0 0      0.000000      0.000000      0.000000      0.000000
     1   0 1 0      0.000000      0.000000      0.000000      0.000000
     1   0 0 1      0.000000      0.000000      0.000000      0.000000

     2   2 0 0     -0.990852     -0.990852      0.000000      0.000000
     2   1 1 0      0.000000      0.000000      0.000000      0.000000
     2   1 0 1      0.000000      0.000000      0.000000      0.000000
     2   0 2 0     -0.990852     -0.990852      0.000000      0.000000
     2   0 1 1      0.000000      0.000000      0.000000      0.000000

 Total times  cpu:        0.0s     wall:        0.1s
