                              Psi4 0.4.138 Driver

  ==> Input File <==

--------------------------------------------------------------------------
molecule dvb {
0 1
    C    -1.4152533224   0.2302217854   0.0000000000
    C     1.4152533224  -0.2302217854   0.0000000000
    C    -0.4951331558   1.3144608674   0.0000000000
    C     0.4951331558  -1.3144608674   0.0000000000
    C     0.8894090436   1.0909493743   0.0000000000
    C    -0.8894090436  -1.0909493743   0.0000000000
    H    -0.8795511985   2.3437343748   0.0000000000
    H     0.8795511985  -2.3437343748   0.0000000000
    H     1.5779041557   1.9450061275   0.0000000000
    H    -1.5779041557  -1.9450061275   0.0000000000
    C     2.8845844962  -0.5210893778   0.0000000000
    C    -2.8845844962   0.5210893778   0.0000000000
    H     3.1403356810  -1.5919605685   0.0000000000
    H    -3.1403356810   1.5919605685   0.0000000000
    C     3.8800428103   0.3822535424   0.0000000000
    C    -3.8800428103  -0.3822535424   0.0000000000
    H     3.6946765858   1.4624389570   0.0000000000
    H    -3.6946765858  -1.4624389570   0.0000000000
    H     4.9316453546   0.0711049543   0.0000000000
    H    -4.9316453546  -0.0711049543   0.0000000000
}

set {
    basis sto-3g
    guess sad
    reference rhf
    scf_type pk
    print_basis true
    print_mos true
}

scf_e, scf_wfn = energy('scf', return_wfn=True)
oeprop(scf_wfn, 'MULLIKEN_CHARGES', 'LOWDIN_CHARGES', 'MULTIPOLE(5)')
--------------------------------------------------------------------------

    Molecular point group: c2h

    Geometry (in Angstrom), charge = 0, multiplicity = 1:

       Center              X                  Y                   Z               Mass
    ------------   -----------------  -----------------  -----------------  -----------------
           C         -1.415253322400     0.230221785400     0.000000000000    12.000000000000
           C          1.415253322400    -0.230221785400     0.000000000000    12.000000000000
           C         -0.495133155800     1.314460867400     0.000000000000    12.000000000000
           C          0.495133155800    -1.314460867400     0.000000000000    12.000000000000
           C          0.889409043600     1.090949374300     0.000000000000    12.000000000000
           C         -0.889409043600    -1.090949374300     0.000000000000    12.000000000000
           H         -0.879551198500     2.343734374800     0.000000000000     1.007825032070
           H          0.879551198500    -2.343734374800     0.000000000000     1.007825032070
           H          1.577904155700     1.945006127500     0.000000000000     1.007825032070
           H         -1.577904155700    -1.945006127500     0.000000000000     1.007825032070
           C          2.884584496200    -0.521089377800     0.000000000000    12.000000000000
           C         -2.884584496200     0.521089377800     0.000000000000    12.000000000000
           H          3.140335681000    -1.591960568500     0.000000000000     1.007825032070
           H         -3.140335681000     1.591960568500     0.000000000000     1.007825032070
           C          3.880042810300     0.382253542400     0.000000000000    12.000000000000
           C         -3.880042810300    -0.382253542400     0.000000000000    12.000000000000
           H          3.694676585800     1.462438957000     0.000000000000     1.007825032070
           H         -3.694676585800    -1.462438957000     0.000000000000     1.007825032070
           H          4.931645354600     0.071104954300     0.000000000000     1.007825032070
           H         -4.931645354600    -0.071104954300     0.000000000000     1.007825032070

  Charge       = 0
  Multiplicity = 1
  Basis Set: STO-3G

    Orbital Energies (a.u.)
    -----------------------

    Doubly Occupied:

       1Bu   -11.040584     1Ag   -11.040521     2Bu   -11.031588
       2Ag   -11.031588     3Bu   -11.028948     3Ag   -11.028817
       4Bu   -11.028605     4Ag   -11.028583     5Bu   -11.017486
       5Ag   -11.017486     6Ag    -1.090295     6Bu    -1.020253
       7Ag    -0.974926     7Bu    -0.950298     8Bu    -0.909634
       8Ag    -0.799881     9Ag    -0.762823     9Bu    -0.727632
      10Ag    -0.696775    11Ag    -0.628051    10Bu    -0.605677
      11Bu    -0.572940    12Bu    -0.553602    12Ag    -0.553167
      13Bu    -0.525356    14Bu    -0.496697    13Ag    -0.492528
       1Au    -0.463727    15Bu    -0.446430    14Ag    -0.421652
      15Ag    -0.415619     1Bg    -0.376963     2Au    -0.315128
       2Bg    -0.278360     3Bg    -0.222188

  @RHF Final Energy:  -379.76896292226729

   => Energetics <=

    Nuclear Repulsion Energy =            445.9369781142434022
    One-Electron Energy =               -1400.2222481098347089
    Two-Electron Energy =                 574.5163070733241284
    DFT Exchange-Correlation Energy =       0.0000000000000000
    Empirical Dispersion Energy =           0.0000000000000000
    PCM Polarization Energy =               0.0000000000000000
    EFP Energy =                            0.0000000000000000
    Total Energy =                       -379.7689629222671783
 Dipole X            :          0.0000000            0.0000000            0.0000000
 Dipole Y            :          0.0000000            0.0000000            0.0000000
 Dipole Z            :          0.0000000            0.0000000            0.0000000

  Lowdin Charges [a.u.]:

   Center  Symbol    Alpha    Beta     Spin     Total
       1     C     2.99563  2.99563  0.00000  0.00873
       2     C     2.99563  2.99563  0.00000  0.00873
       3     C     3.01585  3.01585  0.00000 -0.03170
       4     C     3.01585  3.01585  0.00000 -0.03170
       5     C     3.01611  3.01611  0.00000 -0.03222
       6     C     3.01611  3.01611  0.00000 -0.03222
       7     H     0.48596  0.48596  0.00000  0.02809
       8     H     0.48596  0.48596  0.00000  0.02809
       9     H     0.48497  0.48497  0.00000  0.03006
      10     H     0.48497  0.48497  0.00000  0.03006
      11     C     3.01141  3.01141  0.00000 -0.02281
      12     C     3.01141  3.01141  0.00000 -0.02281
      13     H     0.48647  0.48647  0.00000  0.02705
      14     H     0.48647  0.48647  0.00000  0.02705
      15     C     3.03483  3.03483  0.00000 -0.06967
      16     C     3.03483  3.03483  0.00000 -0.06967
      17     H     0.48472  0.48472  0.00000  0.03057
      18     H     0.48472  0.48472  0.00000  0.03057
      19     H     0.48405  0.48405  0.00000  0.03190
      20     H     0.48405  0.48405  0.00000  0.03190

  Total alpha = 35.00000, Total beta = 35.00000, Total charge =  0.00000
