 Gaussian 09, Revision B.01,

 -------------------------------------
 #T wB97xD/Def2SVP OPT=(MaxCycles=500)
 -------------------------------------

 c1sc2c(c1)oc1c2sc(c1)c1sc2c(c1)oc1c2sc(c1)c1sc2c(c1)oc1c2sc(c1)c1sc2c(
 c1)oc1c2sc(c1)
 ----------------------------------------------------------------------
 Symbolic Z-matrix:
 Charge =  0 Multiplicity = 1

 SCF Done:  E(RwB97XD) =  -4708.97185813     A.U. after   21 cycles
 SCF Done:  E(RwB97XD) =  -4709.03769035     A.U. after   16 cycles
 SCF Done:  E(RwB97XD) =  -4709.07808097     A.U. after   20 cycles
 SCF Done:  E(RwB97XD) =  -4709.07887419     A.U. after   14 cycles
 SCF Done:  E(RwB97XD) =  -4709.07893037     A.U. after   16 cycles
 SCF Done:  E(RwB97XD) =  -4709.07893204     A.U. after   20 cycles
 SCF Done:  E(RwB97XD) =  -4709.07893314     A.U. after   20 cycles
 SCF Done:  E(RwB97XD) =  -4709.07893338     A.U. after    7 cycles
 SCF Done:  E(RwB97XD) =  -4709.07893343     A.U. after    7 cycles
 SCF Done:  E(RwB97XD) =  -4709.07893353     A.U. after    7 cycles
 SCF Done:  E(RwB97XD) =  -4709.07893330     A.U. after    8 cycles
 SCF Done:  E(RwB97XD) =  -4709.07893317     A.U. after   20 cycles
 SCF Done:  E(RwB97XD) =  -4709.07893321     A.U. after   16 cycles
 Optimization completed on the basis of negligible forces.
    -- Stationary point found.
 Normal termination of Gaussian 09 at Wed Oct 28 16:35:28 2015.
 Gaussian 09:  EM64L-G09RevB.01 12-Aug-2010

 ------------------------------------------
 # Geom=AllCheck ZINDO(NStates=15,Singlets)
 ------------------------------------------

 c1)oc1c2sc(c1)
 ----------------------------------------------------------------------
 Redundant internal coordinates taken from checkpoint file:
 100.chk
 Charge =  0 Multiplicity = 1

                         Standard orientation:
 ---------------------------------------------------------------------
 Center     Atomic      Atomic             Coordinates (Angstroms)
 Number     Number       Type             X           Y           Z
 ---------------------------------------------------------------------
      1          6           0       14.798203    0.068644    0.000477
      2         16           0       13.763120   -1.328625    0.001876
      3          6           0       12.365455   -0.321824    0.000620
      4          6           0       12.728299    1.016315   -0.000788
      5          6           0       14.125459    1.260963   -0.000883
      6          8           0       11.653745    1.843454   -0.001819
      7          6           0       10.578797    1.019067   -0.001074
      8          6           0       10.938672   -0.318594    0.000424
      9         16           0        9.541966   -1.324517    0.001377
     10          6           0        8.488243    0.082639   -0.000336
     11          6           0        9.187802    1.270123   -0.001560
     12          6           0        7.046760   -0.104948   -0.000326
     13         16           0        5.993670    1.303073   -0.000465
     14          6           0        4.596209    0.297242   -0.000426
     15          6           0        4.956589   -1.041275   -0.000224
     16          6           0        6.346872   -1.292496   -0.000191
     17          8           0        3.880947   -1.865341   -0.000074
     18          6           0        2.807616   -1.038343   -0.000211
     19          6           0        3.171920    0.299244   -0.000448
     20         16           0        1.777587    1.309151   -0.000472
     21          6           0        0.720248   -0.095752   -0.000098
     22          6           0        1.416835   -1.285473    0.000014
     23          6           0       -0.720248    0.095760    0.000013
     24         16           0       -1.777585   -1.309143   -0.000542
     25          6           0       -3.171920   -0.299237   -0.000155
     26          6           0       -2.807616    1.038349    0.000350
     27          6           0       -1.416836    1.285481    0.000485
     28          8           0       -3.880949    1.865348    0.000753
     29          6           0       -4.956590    1.041282    0.000533
     30          6           0       -4.596209   -0.297235    0.000027
     31         16           0       -5.993668   -1.303068   -0.000386
     32          6           0       -7.046760    0.104951    0.000087
     33          6           0       -6.346873    1.292501    0.000559
     34          6           0       -8.488243   -0.082638   -0.000004
     35         16           0       -9.541968    1.324516    0.001246
     36          6           0      -10.938673    0.318591    0.000497
     37          6           0      -10.578794   -1.019070   -0.000651
     38          6           0       -9.187800   -1.270124   -0.000975
     39          8           0      -11.653742   -1.843459   -0.001408
     40          6           0      -12.728298   -1.016325   -0.000730
     41          6           0      -12.365457    0.321814    0.000426
     42         16           0      -13.763122    1.328613    0.001154
     43          6           0      -14.798204   -0.068657   -0.000102
     44          6           0      -14.125458   -1.260975   -0.001043
     45          1           0       15.877255   -0.076520    0.000752
     46          1           0       14.601073    2.239747   -0.001917
     47          1           0        8.727214    2.257145   -0.002837
     48          1           0        6.807524   -2.279413   -0.000164
     49          1           0        0.953564   -2.271193    0.000253
     50          1           0       -0.953567    2.271202    0.000921
     51          1           0       -6.807530    2.279416    0.000899
     52          1           0       -8.727212   -2.257146   -0.001885
     53          1           0      -15.877258    0.076499   -0.000077
     54          1           0      -14.601075   -2.239757   -0.001915
 ---------------------------------------------------------------------

 SCF Done:  E(RZINDO/S) =  -308.532553531     A.U. after   16 cycles

 Excitation energies and oscillator strengths:

 Excited State   1:      Singlet-A      2.0353 eV  609.16 nm  f=2.4970  <S**2>=0.000
     103 ->108         0.16148
     104 ->107         0.28646
     105 ->106         0.59535
 This state for optimization and/or second-order correction.
 Total Energy, E(CIS) =  -308.457756122
 Copying the excited state density for this state as the 1-particle RhoCI density.

 Excited State   2:      Singlet-A      2.5050 eV  494.94 nm  f=0.0000  <S**2>=0.000
     103 ->107        -0.14303
     103 ->109         0.10802
     104 ->106         0.41238
     104 ->108        -0.19530
     105 ->107         0.46476

 Excited State   3:      Singlet-A      2.9350 eV  422.43 nm  f=0.2303  <S**2>=0.000
     102 ->107        -0.10124
     103 ->106         0.30423
     103 ->110        -0.10257
     104 ->107        -0.33954
     104 ->109         0.14238
     105 ->108         0.43830

 Excited State   4:      Singlet-A      3.3262 eV  372.76 nm  f=0.0000  <S**2>=0.000
     102 ->106        -0.28648
     103 ->107         0.30109
     104 ->108         0.29981
     104 ->110         0.16590
     105 ->109         0.34459
     105 ->111        -0.12902

 Excited State   5:      Singlet-A      3.3959 eV  365.09 nm  f=0.0000  <S**2>=0.000
     102 ->108        -0.21432
     102 ->110         0.10975
     103 ->107        -0.24054
     104 ->106         0.40492
     104 ->108         0.24203
     105 ->107        -0.33529

 Excited State   6:      Singlet-A      3.5491 eV  349.34 nm  f=0.0482  <S**2>=0.000
     102 ->107        -0.29140
     103 ->106         0.24258
     103 ->108        -0.24526
     104 ->109         0.16230
     105 ->108        -0.27935
     105 ->110         0.33725
     105 ->112         0.11496

 Excited State   7:      Singlet-A      3.7086 eV  334.32 nm  f=0.0297  <S**2>=0.000
     102 ->107         0.10657
     102 ->111         0.11765
     103 ->106        -0.33330
     103 ->110        -0.23771
     104 ->107         0.10207
     104 ->109         0.36417
     105 ->108         0.20697
     105 ->110         0.23788

 Excited State   8:      Singlet-A      3.8247 eV  324.17 nm  f=0.0000  <S**2>=0.000
     102 ->106         0.26940
     103 ->107        -0.17423
     103 ->109        -0.24438
     103 ->111        -0.13396
     104 ->110         0.37286
     105 ->109         0.21299
     105 ->111         0.22105

 Excited State   9:      Singlet-A      4.0169 eV  308.65 nm  f=0.0000  <S**2>=0.000
     101 ->107         0.14190
     102 ->106        -0.28758
     102 ->108         0.12737
     103 ->107         0.14677
     103 ->109        -0.12151
     103 ->111         0.10258
     103 ->113         0.11313
     104 ->106         0.10150
     104 ->112        -0.13663
     105 ->109        -0.24949
     105 ->111         0.40329
     105 ->113         0.12058

 Excited State  10:      Singlet-A      4.0897 eV  303.17 nm  f=0.0130  <S**2>=0.000
     102 ->115        -0.11362
     102 ->120         0.22182
     103 ->114         0.13054
     103 ->118        -0.15181
     104 ->115         0.22998
     104 ->120        -0.15855
     105 ->114         0.50299
     105 ->118        -0.18780

 Excited State  11:      Singlet-A      4.1250 eV  300.57 nm  f=0.0000  <S**2>=0.000
     102 ->114        -0.19130
     102 ->118         0.17822
     103 ->120        -0.20502
     104 ->114         0.31342
     105 ->115         0.38097
     105 ->119        -0.12546
     105 ->120        -0.32365

 Excited State  12:      Singlet-A      4.1549 eV  298.40 nm  f=0.0063  <S**2>=0.000
     102 ->109        -0.16728
     103 ->110         0.18380
     103 ->112        -0.11323
     103 ->117         0.10177
     104 ->111        -0.33551
     104 ->113         0.19626
     105 ->112         0.40130

 Excited State  13:      Singlet-A      4.1856 eV  296.22 nm  f=0.0067  <S**2>=0.000
     102 ->115         0.20066
     103 ->114        -0.20989
     103 ->118        -0.28657
     104 ->115         0.31574
     104 ->120         0.29430
     105 ->118         0.33722

 Excited State  14:      Singlet-A      4.1890 eV  295.98 nm  f=0.0000  <S**2>=0.000
     102 ->114         0.17909
     102 ->118         0.12963
     103 ->115        -0.31795
     103 ->120        -0.14628
     104 ->114         0.11303
     104 ->118         0.40558
     105 ->115         0.14658
     105 ->120         0.32532

 Excited State  15:      Singlet-A      4.2651 eV  290.70 nm  f=0.0000  <S**2>=0.000
     101 ->121        -0.15069
     103 ->116         0.12257
     103 ->121         0.20999
     104 ->119         0.27749
     105 ->116         0.54199

 The electronic state is 1-A.
 Alpha  occ. eigenvalues --   -1.85327  -1.85213  -1.85052  -1.85039  -1.56968
 Alpha  occ. eigenvalues --   -1.56084  -1.54843  -1.51646  -1.51347  -1.48991
 Alpha  occ. eigenvalues --   -1.47740  -1.46956  -1.25468  -1.24300  -1.22560
 Alpha  occ. eigenvalues --   -1.21079  -1.14807  -1.11482  -1.09045  -1.08312
 Alpha  occ. eigenvalues --   -1.07180  -1.06017  -1.04416  -1.00640  -0.99645
 Alpha  occ. eigenvalues --   -0.97861  -0.94681  -0.92694  -0.92335  -0.91086
 Alpha  occ. eigenvalues --   -0.88624  -0.85845  -0.83866  -0.83848  -0.82948
 Alpha  occ. eigenvalues --   -0.82654  -0.81545  -0.74811  -0.73785  -0.73768
 Alpha  occ. eigenvalues --   -0.72966  -0.72278  -0.71943  -0.71376  -0.67487
 Alpha  occ. eigenvalues --   -0.66336  -0.65437  -0.64631  -0.63203  -0.62737
 Alpha  occ. eigenvalues --   -0.61543  -0.61441  -0.61125  -0.60772  -0.60570
 Alpha  occ. eigenvalues --   -0.59853  -0.57379  -0.57302  -0.55504  -0.54090
 Alpha  occ. eigenvalues --   -0.53664  -0.53062  -0.52147  -0.52139  -0.51962
 Alpha  occ. eigenvalues --   -0.51259  -0.50668  -0.50411  -0.50283  -0.50225
 Alpha  occ. eigenvalues --   -0.49731  -0.49036  -0.48865  -0.48146  -0.48133
 Alpha  occ. eigenvalues --   -0.47690  -0.47639  -0.46976  -0.46854  -0.46746
 Alpha  occ. eigenvalues --   -0.46619  -0.46066  -0.45504  -0.45039  -0.44988
 Alpha  occ. eigenvalues --   -0.44565  -0.44549  -0.44082  -0.43926  -0.38963
 Alpha  occ. eigenvalues --   -0.38135  -0.37704  -0.36890  -0.36808  -0.36221
 Alpha  occ. eigenvalues --   -0.35048  -0.34958  -0.34724  -0.34676  -0.34382
 Alpha  occ. eigenvalues --   -0.32696  -0.29106  -0.27009  -0.24864  -0.23203
 Alpha virt. eigenvalues --   -0.04674  -0.03207  -0.01460   0.00616   0.01437
 Alpha virt. eigenvalues --    0.03090   0.04279   0.05204   0.06151   0.06366
 Alpha virt. eigenvalues --    0.06395   0.06541   0.06609   0.06643   0.06784

 Mulliken atomic charges:
              1
     1  C   -0.036828
     2  S   -0.008426
     3  C   -0.004465
     4  C    0.090055
     5  C   -0.030481
     6  O   -0.208939
     7  C    0.089052
     8  C   -0.003767
     9  S   -0.012412
    10  C    0.014312
    11  C   -0.035590
    12  C    0.016196
    13  S   -0.012165
    14  C   -0.004465
    15  C    0.091184
    16  C   -0.036915
    17  O   -0.208970
    18  C    0.090672
    19  C   -0.003851
    20  S   -0.012142
    21  C    0.015344
    22  C   -0.036230
    23  C    0.015344
    24  S   -0.012142
    25  C   -0.003851
    26  C    0.090672
    27  C   -0.036230
    28  O   -0.208970
    29  C    0.091185
    30  C   -0.004465
    31  S   -0.012165
    32  C    0.016196
    33  C   -0.036916
    34  C    0.014312
    35  S   -0.012411
    36  C   -0.003767
    37  C    0.089052
    38  C   -0.035590
    39  O   -0.208939
    40  C    0.090056
    41  C   -0.004465
    42  S   -0.008426
    43  C   -0.036828
    44  C   -0.030481
    45  H    0.052306
    46  H    0.048068
    47  H    0.049401
    48  H    0.049513
    49  H    0.049544
    50  H    0.049544
    51  H    0.049513
    52  H    0.049401
    53  H    0.052306
    54  H    0.048067
 Sum of Mulliken atomic charges =   0.00000

 Dipole moment (field-independent basis, Debye):
    X=              0.0000    Y=              0.0000    Z=             -0.0048  Tot=              0.0048
 N-N= 1.619105237141D+03 E-N= 0.000000000000D+00  KE=-3.697378704228D+03
 1\1\GINC-N7\SP\RZINDO\STO-3G\C32H10O4S8\IEK2\28-Oct-2015\0\\# Geom=All
 Check ZINDO(NStates=15,Singlets)\\c1sc2c(c1)oc1c2sc(c1)c1sc2c(c1)oc1c2
 sc(c1)c1sc2c(c1)oc1c2sc(c1)c1sc2c(c1)oc1c2sc(c1)\\0,1\C,0,2.181767798,
 1.2735637219,-0.0168116448\S,0,0.7529872583,2.2638827314,-0.0569815033
 \C,0,-0.2475287974,0.8621891046,-0.0204091019\C,0,0.5256196769,-0.2879
 666546,0.0202928039\C,0,1.927344865,-0.0710157449,0.0229899837\O,0,-0.
 2265582335,-1.415870382,0.050083719\C,0,-1.5092118061,-0.980620968,0.0
 280632253\C,0,-1.5977465626,0.4010958114,-0.0152023604\S,0,-3.24339329
 1,0.9048876801,-0.0418242735\C,0,-3.7896703136,-0.7653525307,0.0061509

 Normal termination of Gaussian 09 at Wed Oct 28 16:35:38 2015.
