 Gaussian 09, Revision C.01,
 Gaussian 09:  EM64L-G09RevC.01 23-Sep-2011

 --------------------------------
 # AM1 freq geom=check guess=read
 --------------------------------

 Benzene frequency calculation printing out normal mode displacements i
 n higher precision
 ----------------------------------------------------------------------
 Structure from the checkpoint file:  benzene.chk
 Charge =  0 Multiplicity = 1

                         Standard orientation:
 ---------------------------------------------------------------------
 Center     Atomic      Atomic             Coordinates (Angstroms)
 Number     Number       Type             X           Y           Z
 ---------------------------------------------------------------------
      1          6           0       -0.506751    1.299753    0.000002
      2          6           0       -1.379012    0.211017   -0.000013
      3          6           0       -0.872253   -1.088740    0.000008
      4          6           0        0.506756   -1.299756   -0.000005
      5          6           0        1.379014   -0.211017   -0.000003
      6          6           0        0.872244    1.088742    0.000004
      7          1           0       -0.906238    2.324298    0.000018
      8          1           0       -2.466023    0.377372   -0.000001
      9          1           0       -1.559805   -1.946968    0.000024
     10          1           0        0.906212   -2.324315   -0.000004
     11          1           0        2.466033   -0.377328    0.000012
     12          1           0        1.559823    1.946946   -0.000010
 ---------------------------------------------------------------------

 SCF Done:  E(RAM1) =  0.349527236288E-01 A.U. after    2 cycles

 The electronic state is 1-A.
 Alpha  occ. eigenvalues --   -1.43860  -1.15283  -1.15283  -0.84745  -0.84745
 Alpha  occ. eigenvalues --   -0.65619  -0.59250  -0.56596  -0.52041  -0.52040
 Alpha  occ. eigenvalues --   -0.49175  -0.43689  -0.43689  -0.35474  -0.35474
 Alpha virt. eigenvalues --    0.02039   0.02039   0.10944   0.14833   0.14833
 Alpha virt. eigenvalues --    0.14875   0.15409   0.16900   0.16900   0.18827
 Alpha virt. eigenvalues --    0.18827   0.20624   0.20624   0.21054   0.22540

 Mulliken atomic charges:
              1
     1  C   -0.130119
     2  C   -0.130119
     3  C   -0.130119
     4  C   -0.130120
     5  C   -0.130120
     6  C   -0.130119
     7  H    0.130118
     8  H    0.130121
     9  H    0.130119
    10  H    0.130119
    11  H    0.130121
    12  H    0.130118
 Sum of Mulliken atomic charges =   0.00000

 Dipole moment (field-independent basis, Debye):
    X=              0.0000    Y=              0.0000    Z=              0.0000  Tot=              0.0000
 N-N= 1.195992544929D+02 E-N=-1.995926004544D+02  KE=-1.879673789223D+01
  Exact polarizability:  68.607   0.000  68.606   0.000   0.000   9.031
 Approx polarizability:  58.286   0.000  58.285   0.000   0.000   6.910
 Calling FoFJK, ICntrl=    100127 FMM=F ISym2X=0 I1Cent= 0 IOpClX= 0 NMat=1 NMatS=1 NMatT=0.
 Full mass-weighted force constant matrix:
 Low frequencies ---   -0.0016   -0.0011   -0.0004    2.2872    2.3716    2.8121
 Low frequencies ---  370.7936  370.7987  618.0103
 Harmonic frequencies (cm**-1), IR intensities (KM/Mole), Raman scattering
 activities (A**4/AMU), depolarization ratios for plane and unpolarized
 incident light, reduced masses (AMU), force constants (mDyne/A),

                     1                      2                      3
                     A                      A                      A
 Frequencies --   370.7936               370.7987               618.0103
 Red. masses --     2.3022                 2.3023                 1.9355
 Frc consts  --     0.1865                 0.1865                 0.4355
 IR Inten    --     0.0000                 0.0000                 0.0000

                     4                      5                      6
                     A                      A                      A
 Frequencies --   647.7864               647.7895               744.1046
 Red. masses --     6.4600                 6.4600                 1.0848
 Frc consts  --     1.5971                 1.5972                 0.3539
 IR Inten    --     0.0000                 0.0000               127.6266

                     7                      8                      9
                     A                      A                      A
 Frequencies --   891.2303               891.2439               989.3457
 Red. masses --     1.2503                 1.2503                 1.5596
 Frc consts  --     0.5851                 0.5851                 0.8994
 IR Inten    --     0.0000                 0.0000                 0.0000

                    10                     11                     12
                     A                      A                      A
 Frequencies --   989.3560              1011.9492              1028.1894
 Red. masses --     1.5595                 1.7892                 6.8008
 Frc consts  --     0.8994                 1.0795                 4.2360
 IR Inten    --     0.0000                 0.0000                 0.0000

                    13                     14                     15
                     A                      A                      A
 Frequencies --  1145.8312              1145.8472              1178.7041
 Red. masses --     1.2184                 1.2184                 1.1529
 Frc consts  --     0.9425                 0.9425                 0.9437
 IR Inten    --     1.0879                 1.0881                 0.0000

                    16                     17                     18
                     A                      A                      A
 Frequencies --  1221.6470              1221.6522              1276.2049
 Red. masses --     1.0296                 1.0296                 6.2557
 Frc consts  --     0.9054                 0.9054                 6.0029
 IR Inten    --     0.0000                 0.0000                 0.0000

                    19                     20                     21
                     A                      A                      A
 Frequencies --  1328.3798              1366.6677              1579.0362
 Red. masses --     1.2503                 4.8034                 3.9663
 Frc consts  --     1.2999                 5.2860                 5.8267
 IR Inten    --     0.0000                 0.0000                12.1818

                    22                     23                     24
                     A                      A                      A
 Frequencies --  1579.0444              1767.5723              1767.5887
 Red. masses --     3.9663                10.4958                10.4956
 Frc consts  --     5.8268                19.3205                19.3206
 IR Inten    --    12.1827                 0.0000                 0.0000

                    25                     26                     27
                     A                      A                      A
 Frequencies --  3183.7401              3186.7932              3186.8212
 Red. masses --     1.0770                 1.0754                 1.0754
 Frc consts  --     6.4318                 6.4350                 6.4351
 IR Inten    --     0.0003                 0.0000                 0.0000

                    28                     29                     30
                     A                      A                      A
 Frequencies --  3194.5388              3194.5679              3205.1325
 Red. masses --     1.0817                 1.0817                 1.0920
 Frc consts  --     6.5038                 6.5039                 6.6097
 IR Inten    --    88.4261                88.4340                 0.0000

 - Thermochemistry -
 -------------------
 Temperature   298.150 Kelvin.  Pressure   1.00000 Atm.
 Atom     1 has atomic number  6 and mass  12.00000

 Molecular mass:    78.04695 amu.
 Principal axes and moments of inertia in atomic units:
                           1         2         3
     Eigenvalues --   317.39231 317.39727 634.78958
           X            0.99989  -0.01501   0.00000
           Y            0.01501   0.99989   0.00000
           Z            0.00000   0.00000   1.00000
 This molecule is an asymmetric top.
 Rotational symmetry number  1.
 Rotational temperatures (Kelvin)      0.27289     0.27289     0.13644
 Rotational constants (GHZ):           5.68615     5.68606     2.84305
 Zero-point vibrational energy     268743.3 (Joules/Mol)
                                   64.23118 (Kcal/Mol)
 Warning -- explicit consideration of   3 degrees of freedom as
           vibrations may cause significant error
 Vibrational temperatures:    533.49   533.50   889.18   932.02   932.02
          (Kelvin)           1070.60  1282.28  1282.30  1423.45  1423.46
                             1455.97  1479.33  1648.59  1648.62  1695.89
                             1757.68  1757.68  1836.17  1911.24  1966.33
                             2271.88  2271.89  2543.14  2543.16  4580.69
                             4585.08  4585.12  4596.22  4596.26  4611.47

 Zero-point correction=                           0.102359 (Hartree/Particle)
 Thermal correction to Energy=                    0.106775
 Thermal correction to Enthalpy=                  0.107719
 Thermal correction to Gibbs Free Energy=         0.074840
 Sum of electronic and zero-point Energies=              0.137312
 Sum of electronic and thermal Energies=                 0.141728
 Sum of electronic and thermal Enthalpies=               0.142672
 Sum of electronic and thermal Free Energies=            0.109792

                     E (Thermal)             CV                S
                      KCal/Mol        Cal/Mol-Kelvin    Cal/Mol-Kelvin
 Total                   67.002             16.818             69.201
 Electronic               0.000              0.000              0.000
 Translational            0.889              2.981             38.979
 Rotational               0.889              2.981             25.662
 Vibrational             65.225             10.856              4.560
 Vibration     1          0.743              1.532              1.077
 Vibration     2          0.743              1.532              1.076
 Vibration     3          0.978              0.994              0.420

 Optimization completed.
    -- Stationary point found.
 Normal termination of Gaussian 09 at Wed Aug  5 15:15:41 2015.
