 Gaussian 09, Revision D.01,

 ---------------
 # hf/sto-3g opt
 ---------------

 -----------------
 HF geomopt sto-3g
 -----------------
 Symbolic Z-matrix:
 Charge =  0 Multiplicity = 1

 SCF Done:  E(RHF) =  -455.086973026     A.U. after    6 cycles
 SCF Done:  E(RHF) =  -455.133562923     A.U. after    7 cycles
 SCF Done:  E(RHF) =  -455.136001806     A.U. after    5 cycles
 SCF Done:  E(RHF) =  -455.136011655     A.U. after    5 cycles
 Optimization completed.
    -- Stationary point found.
 Normal termination of Gaussian 09 at Fri May  8 03:35:56 2015.
 Gaussian 09:  EM64L-G09RevD.01 24-Apr-2013

 ----------------------
 # geom=check mp2/6-31G
 ----------------------

 ------------------------
 single point calculation
 ------------------------
 Structure from the checkpoint file:  "jos.eunissen.chk"
 Charge =  0 Multiplicity = 1

                         Standard orientation:
 ---------------------------------------------------------------------
 Center     Atomic      Atomic             Coordinates (Angstroms)
 Number     Number       Type             X           Y           Z
 ---------------------------------------------------------------------
      1          1           0        0.000000    0.000000   -1.240366
      2         17           0        0.000000    0.000000    0.072963
 ---------------------------------------------------------------------

 SCF Done:  E(RHF) =  -460.036995120     A.U. after    8 cycles
 E2 =    -0.4883525716D-01 EUMP2 =    -0.46008583037687D+03

 The electronic state is 1-SG.
 Alpha  occ. eigenvalues -- -104.83557 -10.57648  -8.04529  -8.04052  -8.04052
 Alpha  occ. eigenvalues --   -1.12271  -0.60999  -0.47876  -0.47876
 Alpha virt. eigenvalues --    0.14686   0.57987   0.62120   0.62120   0.62508
 Alpha virt. eigenvalues --    0.97763

 Mulliken charges:
               1
     1  H    0.198384
     2  Cl  -0.198384
 Sum of Mulliken charges =   0.00000

 Dipole moment (field-independent basis, Debye):
    X=              0.0000    Y=              0.0000    Z=             -1.8818  Tot=              1.8818
 Quadrupole moment (field-independent basis, Debye-Ang):
   XX=            -14.0861   YY=            -14.0861   ZZ=            -10.6887
   XY=              0.0000   XZ=              0.0000   YZ=              0.0000

 Normal termination of Gaussian 09 at Fri May  8 03:35:58 2015.
