 Gaussian 09, Revision D.01,
 Gaussian 09:  ES64L-G09RevD.01 24-Apr-2013

 -------------------------------------------------------------------
 #p gfprint oniom(UB3LYP/6-31G(d):upm6) opt geom=allcheck guess=read
 -------------------------------------------------------------------

 Structure from the checkpoint file:  "/work/cjf05/ASE_notebooks/graphene_cycloadditions/hypothesis_testing/o2_o2_66_p2_azomethine.chk"
 ------------------------------
 Gaussian input prepared by ASE
 ------------------------------
 Charge =  0 Multiplicity = 1 for low   level calculation on real  system.
 Charge =  0 Multiplicity = 1 for high  level calculation on model system.
 Charge =  0 Multiplicity = 1 for low   level calculation on model system.

 SCF Done:  E(UPM6) =  0.487314022827     A.U. after    2 cycles
 SCF Done:  E(UB3LYP) =  -749.603681183     A.U. after    3 cycles
 SCF Done:  E(UPM6) =  0.173705219889     A.U. after    2 cycles

 The electronic state is 1-A.
 Alpha  occ. eigenvalues --   -1.19438  -1.09084  -1.08459  -1.05573  -1.01472
 Alpha  occ. eigenvalues --   -0.98662  -0.94479  -0.93906  -0.90827  -0.89119
 Alpha  occ. eigenvalues --   -0.82388  -0.79723  -0.79316  -0.79021  -0.76321
 Alpha  occ. eigenvalues --   -0.69942  -0.66055  -0.65476  -0.63911  -0.62760
 Alpha  occ. eigenvalues --   -0.61424  -0.59090  -0.55696  -0.55475  -0.54909
 Alpha  occ. eigenvalues --   -0.53977  -0.53797  -0.51042  -0.50823  -0.49982
 Alpha  occ. eigenvalues --   -0.49429  -0.48506  -0.47721  -0.47038  -0.46162
 Alpha  occ. eigenvalues --   -0.45980  -0.44797  -0.43740  -0.42650  -0.42237
 Alpha  occ. eigenvalues --   -0.41449  -0.39218  -0.38047  -0.34723  -0.32872
 Alpha  occ. eigenvalues --   -0.31349
 Alpha virt. eigenvalues --   -0.01923  -0.01522   0.03039   0.03680   0.06669
 Alpha virt. eigenvalues --    0.07109   0.07713   0.10341   0.11674   0.12020
 Alpha virt. eigenvalues --    0.13661   0.14033   0.14332   0.14468   0.14914

  Beta  occ. eigenvalues --   -1.19438  -1.09084  -1.08459  -1.05573  -1.01472
  Beta  occ. eigenvalues --   -0.98662  -0.94479  -0.93906  -0.90827  -0.89119
  Beta  occ. eigenvalues --   -0.82388  -0.79723  -0.79317  -0.79021  -0.76321
  Beta  occ. eigenvalues --   -0.69942  -0.66055  -0.65476  -0.63911  -0.62760
  Beta  occ. eigenvalues --   -0.61424  -0.59090  -0.55696  -0.55475  -0.54909
  Beta  occ. eigenvalues --   -0.53977  -0.53797  -0.51042  -0.50823  -0.49982
  Beta  occ. eigenvalues --   -0.49429  -0.48506  -0.47721  -0.47038  -0.46162
  Beta  occ. eigenvalues --   -0.45980  -0.44797  -0.43740  -0.42649  -0.42237
  Beta  occ. eigenvalues --   -0.41449  -0.39218  -0.38047  -0.34723  -0.32872
  Beta  occ. eigenvalues --   -0.31349
  Beta virt. eigenvalues --   -0.01923  -0.01522   0.03039   0.03680   0.06669
  Beta virt. eigenvalues --    0.07108   0.07713   0.10341   0.11674   0.12020
  Beta virt. eigenvalues --    0.13661   0.14033   0.14332   0.14467   0.14914

 Mulliken charges and spin densities:
               1          2
     1  C    0.000000   0.000000
     2  C    0.000000   0.000000
     3  C    0.000000   0.000000
     4  C    0.000000   0.000000
     5  C    0.000000   0.000000
     6  C    0.000000   0.000000
     7  C    0.000000   0.000000
     8  C    0.000000   0.000000
     9  C    0.000000   0.000000
    10  C    0.000000   0.000000
    11  C    0.000000   0.000000
    12  C    0.000000   0.000000
    13  C    0.000000   0.000000
    14  C    0.000000   0.000000
    15  C    0.000000   0.000000
    16  C    0.000000   0.000000
    17  C    0.000000   0.000000
    18  C    0.000000   0.000000
    19  C    0.000000   0.000000
    20  C    0.000000   0.000000
    21  C    0.000000   0.000000
    22  C    0.000000   0.000000
    23  C    0.000000   0.000000
    24  C    0.000000   0.000000
    25  C    0.000000   0.000000
    26  C    0.000000   0.000000
    27  C    0.000000   0.000000
    28  C    0.000000   0.000000
    29  C    0.000000   0.000000
    30  C    0.000000   0.000000
    31  C    0.000000   0.000000
    32  C    0.000000   0.000000
    33  C    0.000000   0.000000
    34  C    0.000000   0.000000
    35  C    0.000000   0.000000
    36  C    0.000000   0.000000
    37  C    0.000000   0.000000
    38  C    0.000000   0.000000
    39  C    0.000000   0.000000
    40  C    0.000000   0.000000
    41  C    0.000000   0.000000
    42  C    0.000000   0.000000
    43  C    0.000000   0.000000
    44  C    0.000000   0.000000
    45  C    0.000000   0.000000
    46  C    0.000000   0.000000
    47  C    0.000000   0.000000
    48  C    0.000000   0.000000
    49  C    0.000000   0.000000
    50  H    0.143472  -0.019520
    51  C    0.000000   0.000000
    52  C    0.000000   0.000000
    53  H    0.143473   0.019520
    54  C    0.000000   0.000000
    55  C    0.000000   0.000000
    56  C    0.000000   0.000000
    57  C    0.000000   0.000000
    58  C    0.000000   0.000000
    59  C    0.000000   0.000000
    60  C    0.000000   0.000000
    61  C    0.000000   0.000000
    62  C    0.000000   0.000000
    63  C    0.000000   0.000000
    64  C    0.000000   0.000000
    65  C    0.000000   0.000000
    66  C    0.000000   0.000000
    67  C    0.000000   0.000000
    68  C    0.000000   0.000000
    69  H    0.144027  -0.019402
    70  C   -0.177068   0.600597
    71  C    0.003406  -0.572332
    72  C   -0.158341   0.614769
    73  C   -0.158348  -0.614770
    74  C    0.003409   0.572329
    75  C   -0.177065  -0.600585
    76  H    0.144028   0.019402
    77  C    0.000000   0.000000
    78  C    0.000000   0.000000
    79  C    0.000000   0.000000
    80  C    0.000000   0.000000
    81  C    0.000000   0.000000
    82  H    0.133129   0.018977
    83  C   -0.114591  -0.654545
    84  C   -0.190701   0.526451
    85  C    0.007454  -0.550868
    86  C    0.018378   0.090864
    87  C    0.018374  -0.090856
    88  C    0.007451   0.550869
    89  C   -0.190700  -0.526446
    90  C   -0.114592   0.654542
    91  H    0.133129  -0.018976
    92  C   -0.165611   0.522044
    93  C   -0.165618  -0.522050
    94  C    0.000000   0.000000
    95  C    0.000000   0.000000
    96  C    0.000000   0.000000
    97  H    0.000000   0.000000
    98  H    0.000000   0.000000
    99  H    0.000000   0.000000
   100  H    0.000000   0.000000
   101  H    0.000000   0.000000
   102  H    0.000000   0.000000
   103  H    0.000000   0.000000
   104  H    0.000000   0.000000
   105  H    0.000000   0.000000
   106  H    0.000000   0.000000
   107  H    0.000000   0.000000
   108  H    0.000000   0.000000
   109  H    0.000000   0.000000
   110  H    0.000000   0.000000
   111  H    0.000000   0.000000
   112  H    0.000000   0.000000
   113  H    0.000000   0.000000
   114  H    0.152656  -0.019153
   115  H    0.152656   0.019153
   116  H    0.000000   0.000000
   117  H    0.151157  -0.018720
   118  H    0.151157   0.018720
   119  H    0.000000   0.000000
   120  H    0.000000   0.000000
   121  H    0.000000   0.000000
   122  H    0.000000   0.000000
   123  C   -0.178349   0.061848
   124  C   -0.178342  -0.061858
   125  N   -0.358812  -0.000002
   126  H    0.154495  -0.001330
   127  H    0.148160  -0.001941
   128  H    0.148152   0.001941
   129  H    0.154492   0.001330
   130  H    0.215484   0.000000
 Sum of Mulliken charges =   0.00000   0.00000

 Dipole moment (field-independent basis, Debye):
    X=              0.0000    Y=             -0.3600    Z=             -0.9639  Tot=              1.0290
 N-N= 7.378970743220D+02 E-N=-1.353138751773D+03  KE=-6.314675799354D+01
 Leave Link  601 at Tue Jun 24 16:32:58 2014, MaxMem=  3355443200 cpu:         0.4
 (Enter /apps/gaussian/g09_d01/g09/l701.exe)
 Compute integral first derivatives.
 ... and contract with generalized density number  0.
 Leave Link  701 at Tue Jun 24 16:32:58 2014, MaxMem=  3355443200 cpu:         1.7
 (Enter /apps/gaussian/g09_d01/g09/l702.exe)
 L702 exits ... SP integral derivatives will be done elsewhere.
 Leave Link  702 at Tue Jun 24 16:32:58 2014, MaxMem=  3355443200 cpu:         0.3
 (Enter /apps/gaussian/g09_d01/g09/l703.exe)

 SCF Done:  E(UPM6) =  0.481181182465     A.U. after   20 cycles
 SCF Done:  E(UB3LYP) =  -749.619764848     A.U. after   14 cycles
 SCF Done:  E(UPM6) =  0.163562445913     A.U. after   17 cycles
 SCF Done:  E(UPM6) =  0.479968863483     A.U. after   19 cycles
 SCF Done:  E(UB3LYP) =  -749.622594992     A.U. after   14 cycles
 SCF Done:  E(UPM6) =  0.162132593997     A.U. after   16 cycles
 SCF Done:  E(UPM6) =  0.480386604978     A.U. after   17 cycles
 SCF Done:  E(UB3LYP) =  -749.623779846     A.U. after   13 cycles
 SCF Done:  E(UPM6) =  0.161661838957     A.U. after   15 cycles
 SCF Done:  E(UPM6) =  0.480466886145     A.U. after   15 cycles
 SCF Done:  E(UB3LYP) =  -749.623965073     A.U. after   11 cycles
 SCF Done:  E(UPM6) =  0.161583853275     A.U. after   14 cycles
 SCF Done:  E(UPM6) =  0.480467282418     A.U. after   13 cycles
 SCF Done:  E(UB3LYP) =  -749.623912731     A.U. after   11 cycles
 SCF Done:  E(UPM6) =  0.161640668923     A.U. after   13 cycles
 Optimization completed.
    -- Stationary point found.

                         Standard orientation:
 ---------------------------------------------------------------------
 Center     Atomic      Atomic             Coordinates (Angstroms)
 Number     Number       Type             X           Y           Z
 ---------------------------------------------------------------------
      1          6           0        2.848867    6.383989    0.305503
      2          6           0        1.437819    6.394671    0.336472
      3          6           0        0.689549    7.619370    0.393726
      4          6           0       -0.689549    7.619370    0.393723
      5          6           0       -1.437819    6.394671    0.336467
      6          6           0       -2.848867    6.383989    0.305494
      7          6           0        7.132492    3.914918   -0.038945
      8          6           0        5.717674    3.933064    0.059498
      9          6           0        4.994659    5.149699    0.162789
     10          6           0        3.578019    5.166543    0.230139
     11          6           0        2.857695    3.919066    0.210939
     12          6           0        1.430439    3.915609    0.253819
     13          6           0        0.714661    5.153393    0.301101
     14          6           0       -0.714661    5.153393    0.301098
     15          6           0       -1.430439    3.915609    0.253816
     16          6           0       -2.857695    3.919067    0.210932
     17          6           0       -3.578018    5.166544    0.230127
     18          6           0       -4.994658    5.149700    0.162773
     19          6           0       -5.717673    3.933064    0.059483
     20          6           0       -7.132490    3.914919   -0.038965
     21          6           0        9.977146    1.461408   -0.427149
     22          6           0        9.264165    2.679536   -0.283502
     23          6           0        7.851566    2.697818   -0.167848
     24          6           0        7.129744    1.450232   -0.187236
     25          6           0        5.706018    1.448941   -0.069928
     26          6           0        4.996625    2.684627    0.045210
     27          6           0        3.571225    2.682310    0.134082
     28          6           0        2.855724    1.441438    0.133915
     29          6           0        1.427196    1.435036    0.199486
     30          6           0        0.714417    2.674903    0.236133
     31          6           0       -0.714417    2.674903    0.236131
     32          6           0       -1.427196    1.435037    0.199485
     33          6           0       -2.855724    1.441438    0.133912
     34          6           0       -3.571225    2.682310    0.134076
     35          6           0       -4.996624    2.684628    0.045202
     36          6           0       -5.706018    1.448942   -0.069933
     37          6           0       -7.129744    1.450233   -0.187243
     38          6           0       -7.851565    2.697819   -0.167864
     39          6           0       -9.264164    2.679538   -0.283521
     40          6           0       -9.977145    1.461409   -0.427163
     41          6           0      -11.395522    1.435971   -0.549313
     42          6           0        9.965903   -1.025013   -0.605439
     43          6           0        9.259063    0.216899   -0.453557
     44          6           0        7.835068    0.214466   -0.328997
     45          6           0        7.120043   -1.023898   -0.349562
     46          6           0        5.698251   -1.028304   -0.213141
     47          6           0        4.990206    0.208547   -0.075352
     48          6           0        3.566368    0.204798    0.046531
     49          6           0        2.850891   -1.036480    0.070929
     50          6           0        1.428099   -1.047004    0.189211
     51          6           0        0.714883    0.193400    0.210588
     52          6           0       -0.714883    0.193401    0.210587
     53          6           0       -1.428099   -1.047004    0.189212
     54          6           0       -2.850892   -1.036480    0.070933
     55          6           0       -3.566368    0.204798    0.046532
     56          6           0       -4.990206    0.208547   -0.075351
     57          6           0       -5.698252   -1.028304   -0.213133
     58          6           0       -7.120044   -1.023898   -0.349554
     59          6           0       -7.835068    0.214466   -0.328998
     60          6           0       -9.259063    0.216900   -0.453560
     61          6           0       -9.965904   -1.025013   -0.605435
     62          6           0      -11.384415   -0.995062   -0.725105
     63          6           0      -12.075628    0.221507   -0.695206
     64          6           0        9.242159   -2.245020   -0.633560
     65          6           0        7.830683   -2.267600   -0.508193
     66          6           0        7.100770   -3.485370   -0.535693
     67          6           0        5.691659   -3.506795   -0.390905
     68          6           0        4.981613   -2.265267   -0.216359
     69          6           0        3.563679   -2.267750   -0.047942
     70          6           0        2.842849   -3.516159    0.018969
     71          6           0        1.453560   -3.503491    0.254451
     72          6           0        0.717304   -2.304505    0.277636
     73          6           0       -0.717303   -2.304504    0.277637
     74          6           0       -1.453560   -3.503490    0.254456
     75          6           0       -2.842851   -3.516160    0.018983
     76          6           0       -3.563680   -2.267751   -0.047931
     77          6           0       -4.981615   -2.265268   -0.216343
     78          6           0       -5.691663   -3.506798   -0.390874
     79          6           0       -7.100774   -3.485372   -0.535663
     80          6           0       -7.830685   -2.267601   -0.508175
     81          6           0       -9.242161   -2.245021   -0.633546
     82          6           0        4.957283   -4.721954   -0.420548
     83          6           0        3.548277   -4.743291   -0.206017
     84          6           0        2.808943   -5.951414   -0.320017
     85          6           0        1.450288   -6.001310   -0.052583
     86          6           0        0.800947   -4.811949    0.638082
     87          6           0       -0.800943   -4.811946    0.638091
     88          6           0       -1.450290   -6.001312   -0.052559
     89          6           0       -2.808948   -5.951419   -0.319980
     90          6           0       -3.548281   -4.743294   -0.205984
     91          6           0       -4.957290   -4.721958   -0.420504
     92          6           0        0.692051   -7.160766   -0.310890
     93          6           0       -0.692055   -7.160768   -0.310877
     94          6           0       11.395523    1.435969   -0.549295
     95          6           0       12.075628    0.221505   -0.695194
     96          6           0       11.384415   -0.995063   -0.725104
     97          1           0        3.392373    7.326041    0.333071
     98          1           0        1.238472    8.559463    0.434646
     99          1           0       -1.238472    8.559464    0.434641
    100          1           0       -3.392373    7.326041    0.333058
    101          1           0        7.679197    4.855016   -0.020658
    102          1           0        5.539144    6.091101    0.183285
    103          1           0       -5.539143    6.091102    0.183263
    104          1           0       -7.679195    4.855018   -0.020685
    105          1           0        9.813506    3.617886   -0.264262
    106          1           0       -9.813504    3.617888   -0.264290
    107          1           0      -11.949695    2.371245   -0.528885
    108          1           0      -11.929995   -1.928519   -0.840229
    109          1           0        9.782708   -3.181074   -0.752795
    110          1           0        7.637125   -4.422387   -0.667356
    111          1           0       -7.637130   -4.422389   -0.667315
    112          1           0       -9.782710   -3.181075   -0.752774
    113          1           0        5.479704   -5.657536   -0.600548
    114          1           0        3.305603   -6.851744   -0.678452
    115          1           0       -3.305613   -6.851752   -0.678402
    116          1           0       -5.479714   -5.657543   -0.600483
    117          1           0        1.223170   -8.061533   -0.614188
    118          1           0       -1.223179   -8.061535   -0.614166
    119          1           0       11.949696    2.371243   -0.528859
    120          1           0       13.161534    0.223223   -0.787408
    121          1           0       11.929994   -1.928519   -0.840233
    122          1           0      -13.161534    0.223225   -0.787423
    123          6           0       -1.131253   -5.013652    2.219952
    124          6           0        1.131274   -5.013674    2.219943
    125          7           0        0.000006   -5.689942    2.799103
    126          1           0       -1.213649   -4.017519    2.670272
    127          1           0       -2.067467   -5.552255    2.372883
    128          1           0        2.067476   -5.552303    2.372855
    129          1           0        1.213703   -4.017546    2.670268
    130          1           0       -0.000004   -6.674185    2.532315
 ---------------------------------------------------------------------

 Normal termination of Gaussian 09 at Tue Jun 24 16:40:29 2014.
