User input:
--------------------------------------------------------------
$molecule
1 2
--
0 2
C -1.447596 -0.000023  0.000019
H -1.562749  0.330361 -1.023835
H -1.561982  0.721445  0.798205
H -1.561187 -1.052067  0.225866
--
1 1
Na 1.215591  0.000036 -0.000032
$end

$rem
jobtype              eda
exchange             b3lyp
basis                6-31g*
unrestricted         true
scf_guess            fragmo
frgm_method          stoll
frgm_lpcorr          rs_exact_scf
eda_bsse             true
diis_separate_errvec 1
scf_print_frgm       true
$end
--------------------------------------------------------------

User input:
--------------------------------------------------------------
$molecule
0 2
 6	-1.4475963500	-0.0000229678	0.0000191465
 1	-1.5627494575	0.3344866289	-1.0224943770
 1	-1.5619822935	0.7182207954	0.8011077029
 1	-1.5611872989	-1.0529690575	0.2216223709
$end
$rem
EXCHANGE		B3LYP
BASIS		6-31G*
UNRESTRICTED		TRUE
EDA_BSSE		TRUE
DIIS_SEPARATE_ERRVEC		1
SCF_PRINT_FRGM		TRUE
!required keywords
JOBTYPE		SP
SYM_IGNORE		TRUE
SUBSYSTEM		TRUE
SAVE_SUBSYSTEM		TRUE
PURECART		12
$end
--------------------------------------------------------------

    7     -39.8377833972      4.56E-06 Convergence criterion met
 Total energy in the final basis set = -39.8377833972
 Total job time:  0.26s(wall), 0.26s(cpu)
        *  Thank you very much for using Q-Chem.  Have a nice day.  *

User input:
--------------------------------------------------------------
$molecule
1 1
 11	1.2155906500	0.0000363127	-0.0000318705
$end
$rem
EXCHANGE		B3LYP
BASIS		6-31G*
UNRESTRICTED		TRUE
EDA_BSSE		TRUE
DIIS_SEPARATE_ERRVEC		1
SCF_PRINT_FRGM		TRUE
!required keywords
JOBTYPE		SP
SYM_IGNORE		TRUE
SUBSYSTEM		TRUE
SAVE_SUBSYSTEM		TRUE
PURECART		12
$end
--------------------------------------------------------------

    4    -162.0812279270      9.07E-06 Convergence criterion met
 Total energy in the final basis set = -162.0812279270
 Total job time:  0.07s(wall), 0.06s(cpu)
    6    -201.9388582085      5.72E-06 Convergence criterion met
    5    -201.9396979324      3.06E-06 Convergence criterion met
 Total energy in the final basis set = -39.8396240510
 Total energy in the final basis set = -162.0812296529
    5     -39.8398496474      3.53E-06 Convergence criterion met
 Total energy in the final basis set = -39.8398496474

       Standard Nuclear Orientation (Angstroms)
    I     Atom         X            Y            Z
 ----------------------------------------------------
    1      GH     -1.447596    -0.000023     0.000019
    2      GH     -1.562749     0.334487    -1.022494
    3      GH     -1.561982     0.718221     0.801108
    4      GH     -1.561187    -1.052969     0.221622
    5      Na      1.215591     0.000036    -0.000032
 ----------------------------------------------------

    2    -162.0812300003      3.45E-06 Convergence criterion met
 Total energy in the final basis set = -162.0812300003
        *  Thank you very much for using Q-Chem.  Have a nice day.  *
 Total energy in the final basis set = -201.9396979324

                    Orbital Energies (a.u.)
 --------------------------------------------------------------

 Alpha MOs
 -- Occupied --
-38.755 -10.394  -2.487  -1.419  -1.419  -1.419  -0.882  -0.611
 -0.611  -0.446

 Beta MOs
 -- Occupied --
-38.755 -10.381  -2.487  -1.419  -1.419  -1.418  -0.844  -0.601
 -0.601

          Ground-State Mulliken Net Atomic Charges

     Atom                 Charge (a.u.)    Spin (a.u.)
  --------------------------------------------------------
      1 C                    -0.551137       0.988912
      2 H                     0.235637      -0.038899
      3 H                     0.235588      -0.038891
      4 H                     0.235586      -0.038885
      5 Na                    0.844326       0.127764
  --------------------------------------------------------
  Sum of atomic charges =     1.000000

                    Cartesian Multipole Moments
 -----------------------------------------------------------------
    Charge (ESU x 10^10)
                 4.8032
    Dipole Moment (Debye)
         X       4.2696      Y       0.0001      Z       0.0001
       Tot       4.2696
    Quadrupole Moments (Debye-Ang)
        XX      -1.1284     XY      -0.0006     YY      -9.9209
        XZ       0.0006     YZ      -0.0001     ZZ      -9.9209
    Octapole Moments (Debye-Ang^2)
       XXX      27.2407    XXY       0.0034    XYY       5.5826
       YYY      -0.8406    XXZ      -0.0030    XYZ       0.0001
       YYZ       0.6031    XZZ       5.5808    YZZ       0.8409
       ZZZ      -0.6031
    Hexadecapole Moments (Debye-Ang^3)
      XXXX    -118.6695   XXXY      -0.0067   XXYY     -22.0119
      XYYY       1.3521   YYYY     -14.9008   XXXZ       0.0063
      XXYZ      -0.0004   XYYZ      -0.9700   YYYZ      -0.0003
      XXZZ     -22.0061   XYZZ      -1.3531   YYZZ      -4.9670

 Total job time:  2.32s(wall), 0.94s(cpu)
        *  Thank you very much for using Q-Chem.  Have a nice day.  *
