 Q-Chem 4.3, Q-Chem, Inc., Pleasanton, CA (2015)
 Q-Chem 4.3.0 for Intel X86 EM64T Linux

User input:
--------------------------------------------------------------
$molecule
1 2
--
0 2
C -1.447596 -0.000023  0.000019
H -1.562749  0.330361 -1.023835
H -1.561982  0.721445  0.798205
H -1.561187 -1.052067  0.225866
--
1 1
Na 1.215591  0.000036 -0.000032
$end

$rem
jobtype              eda
exchange             b3lyp
basis                6-31g*
unrestricted         true
scf_guess            fragmo
frgm_method          stoll
frgm_lpcorr          rs
eda_bsse             true
diis_separate_errvec 1
scf_print_frgm       false
$end
--------------------------------------------------------------

             Standard Nuclear Orientation (Angstroms)
    I     Atom           X                Y                Z
 ----------------------------------------------------------------
    1      C      -1.4475963500    -0.0000229678     0.0000191465
    2      H      -1.5627494575     0.3344866290    -1.0224943770
    3      H      -1.5619822935     0.7182207953     0.8011077030
    4      H      -1.5611872989    -1.0529690576     0.2216223708
    5      Na      1.2155906500     0.0000363127    -0.0000318705
 ----------------------------------------------------------------

    6    -201.9388582085      5.72E-06 Convergence criterion met
 Total energy in the final basis set = -201.9388582085

                    Orbital Energies (a.u.)
 --------------------------------------------------------------

 Alpha MOs
 -- Occupied --
-10.376  -0.870  -0.598  -0.598  -0.433 -38.769  -2.501  -1.433
 -1.432  -1.432

 Beta MOs
 -- Occupied --
-10.363  -0.829  -0.588  -0.588 -38.769  -2.501  -1.432  -1.432
 -1.432

          Ground-State Mulliken Net Atomic Charges

     Atom                 Charge (a.u.)    Spin (a.u.)
  --------------------------------------------------------
      1 C                    -0.534888       1.014842
      2 H                     0.225266      -0.041886
      3 H                     0.225212      -0.041873
      4 H                     0.225200      -0.041867
      5 Na                    0.859210       0.110783
  --------------------------------------------------------
  Sum of atomic charges =     1.000000

                    Cartesian Multipole Moments
 -----------------------------------------------------------------
    Charge (ESU x 10^10)
                 4.8032
    Dipole Moment (Debye)
         X       4.3469      Y       0.0001      Z       0.0001
       Tot       4.3469
    Quadrupole Moments (Debye-Ang)
        XX      -1.2160     XY      -0.0007     YY      -9.9973
        XZ       0.0006     YZ      -0.0001     ZZ      -9.9972

 Total job time:  4.37s(wall), 1.05s(cpu)
        *  Thank you very much for using Q-Chem.  Have a nice day.  *
