 Q-Chem 4.2, Q-Chem, Inc., Pleasanton, CA (2014).
 Q-Chem 4.2.2 for Intel X86 EM64T Linux

User input:
--------------------------------------------------------------
$molecule
1 2
--
0 2
C -1.447596 -0.000023  0.000019
H -1.562749  0.330361 -1.023835
H -1.561982  0.721445  0.798205
H -1.561187 -1.052067  0.225866
--
1 1
Na 1.215591  0.000036 -0.000032
$end

$rem
jobtype              eda
exchange             b3lyp
basis                6-31g*
unrestricted         true
scf_guess            fragmo
frgm_method          stoll
frgm_lpcorr          rs
eda_bsse             true
diis_separate_errvec 1
scf_print_frgm       true
$end
--------------------------------------------------------------

 Q-Chem 4.2, Q-Chem, Inc., Pleasanton, CA (2014).
 Q-Chem 4.2.2 for Intel X86 EM64T Linux

User input:
--------------------------------------------------------------
$molecule
0 2
 6	-1.4475960000	-0.0000230000	0.0000190000
 1	-1.5627490000	0.3303610000	-1.0238350000
 1	-1.5619820000	0.7214450000	0.7982050000
 1	-1.5611870000	-1.0520670000	0.2258660000
$end
$rem
EXCHANGE		B3LYP
BASIS		6-31G*
UNRESTRICTED		TRUE
EDA_BSSE		TRUE
DIIS_SEPARATE_ERRVEC		1
SCF_PRINT_FRGM		TRUE
!required keywords
JOBTYPE		SP
SYM_IGNORE		TRUE
SUBSYSTEM		TRUE
SAVE_SUBSYSTEM		TRUE
PURECART		12
$end
--------------------------------------------------------------

   11     -39.8377804994      3.22E-10 Convergence criterion met
 Total energy in the final basis set = -39.8377804994
 Total job time:  5.63s(wall), 2.45s(cpu)
        *  Thank you very much for using Q-Chem.  Have a nice day.  *
 Q-Chem 4.2, Q-Chem, Inc., Pleasanton, CA (2014).
 Q-Chem 4.2.2 for Intel X86 EM64T Linux

User input:
--------------------------------------------------------------
$molecule
1 1
 11	1.2155910000	0.0000360000	-0.0000320000
$end
$rem
EXCHANGE		B3LYP
BASIS		6-31G*
UNRESTRICTED		TRUE
EDA_BSSE		TRUE
DIIS_SEPARATE_ERRVEC		1
SCF_PRINT_FRGM		TRUE
!required keywords
JOBTYPE		SP
SYM_IGNORE		TRUE
SUBSYSTEM		TRUE
SAVE_SUBSYSTEM		TRUE
PURECART		12
$end
--------------------------------------------------------------

    6    -162.0812309513      9.94E-10 Convergence criterion met
 Total energy in the final basis set = -162.0812309513

 STANDARD THERMODYNAMIC QUANTITIES AT   298.15 K  AND     1.00 ATM

   Translational Enthalpy:        0.889 kcal/mol
   Rotational Enthalpy:           0.000 kcal/mol
   Vibrational Enthalpy:          0.000 kcal/mol
   gas constant (RT):             0.592 kcal/mol
   Translational Entropy:        35.336  cal/mol.K
   Rotational Entropy:            0.000  cal/mol.K
   Vibrational Entropy:           0.000  cal/mol.K

   Total Enthalpy:                1.481 kcal/mol
   Total Entropy:                35.336  cal/mol.K

 Total job time:  0.82s(wall), 0.76s(cpu)
        *  Thank you very much for using Q-Chem.  Have a nice day.  *
   15    -201.9388745658      5.39E-09 Convergence criterion met
 Q-Chem 4.2, Q-Chem, Inc., Pleasanton, CA (2014).
 Q-Chem 4.2.2 for Intel X86 EM64T Linux
 Total energy in the final basis set = -39.8396177905
 Q-Chem 4.2, Q-Chem, Inc., Pleasanton, CA (2014).
 Q-Chem 4.2.2 for Intel X86 EM64T Linux

             Standard Nuclear Orientation (Angstroms)
    I     Atom           X                Y                Z
 ----------------------------------------------------------------
    1      GH     -1.4475960000    -0.0000230000     0.0000190000
    2      GH     -1.5627490000     0.3303610000    -1.0238350000
    3      GH     -1.5619820000     0.7214450000     0.7982050000
    4      GH     -1.5611870000    -1.0520670000     0.2258660000
    5      Na      1.2155910000     0.0000360000    -0.0000320000
 ----------------------------------------------------------------

 Total energy in the final basis set = -162.0812566167
 Total energy in the final basis set = -201.9388745658

                    Orbital Energies (a.u.)
 --------------------------------------------------------------

 Alpha MOs
 -- Occupied --
-10.376  -0.870  -0.598  -0.598  -0.433 -38.769  -2.501  -1.433
 -1.433  -1.432

 Beta MOs
 -- Occupied --
-10.363  -0.829  -0.588  -0.588 -38.769  -2.501  -1.432  -1.432
 -1.432

         Ground-State ChElPG Net Atomic Charges

     Atom                 Charge (a.u.)
  ----------------------------------------
      1 C                    -0.412263
      2 H                     0.170766
      3 H                     0.171199
      4 H                     0.170787
      5 Na                    0.899512
  ----------------------------------------
  Sum of atomic charges =     1.000000

                    Cartesian Multipole Moments
 -----------------------------------------------------------------
    Charge (ESU x 10^10)
                 4.8032
    Dipole Moment (Debye)
         X       4.3468      Y       0.0000      Z      -0.0000
       Tot       4.3468
    Quadrupole Moments (Debye-Ang)
        XX      -1.2160     XY      -0.0007     YY      -9.9975
        XZ       0.0006     YZ      -0.0000     ZZ      -9.9974

 Total job time:  18.87s(wall), 8.05s(cpu)
        *  Thank you very much for using Q-Chem.  Have a nice day.  *
