 Q-Chem 4.3, Q-Chem, Inc., Pleasanton, CA (2015)
 Q-Chem 4.3.0 for Intel X86 EM64T Linux

User input:
--------------------------------------------------------------
$molecule
 1 1
 --
 0 1
 C      -1.347085     0.000371    -0.000120
 H      -1.046164     0.327057    -0.998780
 H      -1.013267    -1.018202     0.215361
 H      -2.433843    -0.018112     0.011987
 H      -1.033273     0.707068     0.772423
 --
 1 1
 Na      1.237187    -0.000003    -0.000025
$end

$rem
jobtype              eda
exchange             b3lyp
basis                6-31g*
scf_guess            fragmo
frgm_method          stoll
frgm_lpcorr          rs_exact_scf
diis_separate_errvec 1
scf_print_frgm       false
$end
--------------------------------------------------------------

             Standard Nuclear Orientation (Angstroms)
    I     Atom           X                Y                Z
 ----------------------------------------------------------------
    1      C      -1.3470850000     0.0003709638    -0.0001196878
    2      H      -1.0461639938     0.3272965458    -0.9987012810
    3      H      -1.0132670896    -1.0182537408     0.2151169004
    4      H      -2.4338430014    -0.0181148394     0.0119829034
    5      H      -1.0332729154     0.7068825494     0.7725928479
    6      Na      1.2371870000    -0.0000032998    -0.0000248403
 ----------------------------------------------------------------

    7    -202.6117499093      9.73E-06 Convergence criterion met
    5    -202.6119443654      6.09E-07 Convergence criterion met
 Total energy in the final basis set = -202.6119443654

                    Orbital Energies (a.u.)
 --------------------------------------------------------------

 Alpha MOs
 -- Occupied --
-38.761 -10.364  -2.494  -1.425  -1.425  -1.425  -0.895  -0.596
 -0.596  -0.582

          Ground-State Mulliken Net Atomic Charges

     Atom                 Charge (a.u.)
  ----------------------------------------
      1 C                    -0.742358
      2 H                     0.210143
      3 H                     0.208360
      4 H                     0.264341
      5 H                     0.209499
      6 Na                    0.850016
  ----------------------------------------
  Sum of atomic charges =     1.000000

                    Cartesian Multipole Moments
 -----------------------------------------------------------------
    Charge (ESU x 10^10)
                 4.8032
    Dipole Moment (Debye)
         X       4.5733      Y       0.0016      Z      -0.0015
       Tot       4.5733
    Quadrupole Moments (Debye-Ang)
        XX      -0.7819     XY       0.0100     YY     -11.0812
        XZ      -0.0050     YZ       0.0002     ZZ     -11.0777

 Total job time:  2.83s(wall), 1.75s(cpu)
        *  Thank you very much for using Q-Chem.  Have a nice day.  *
