 Q-Chem 4.2, Q-Chem, Inc., Pleasanton, CA (2014).
 Q-Chem 4.2.2 for Intel X86 EM64T Linux

User input:
--------------------------------------------------------------
$rem
 method = b3lyp
 basis = 6-31g**
 scf_convergence = 9
 thresh = 14
 xc_grid = 000100000302
 print_general_basis = true
 print_orbitals = 34
 scf_final_print = 2
 make_cube_files = true
$end

$plots
 molecular orbitals
 200 -10.0 10.0
 200 -10.0 10.0
 200 -10.0 10.0
 45 0 0 0
 1 2 3 4 5 6 7 8 9 10 11 12 13 14 15 16 17 18 19 20 21 22 23 24 25 26 27 28 29 30 31 32 33 34 35 36 37 38 39 40 41 42 43 44 45
$end

$molecule
 0 1
C      0.0000000000   -0.0003162467   -0.0000048217
O      0.0000000000    0.0001159898   -1.1691641452
O      0.0000000000    0.0001159547    1.1691546879
$end
--------------------------------------------------------------

             Standard Nuclear Orientation (Angstroms)
    I     Atom           X                Y                Z
 ----------------------------------------------------------------
    1      C       0.0000000000    -0.0003143411    -0.0000000677
    2      O      -0.0000000000     0.0001178779    -1.1691593912
    3      O       0.0000000000     0.0001178779     1.1691594419
 ----------------------------------------------------------------

   11    -188.5809384645      2.71E-10 Convergence criterion met
 Total energy in the final basis set = -188.5809384645

                    Orbital Energies (a.u.)
 --------------------------------------------------------------

 Alpha MOs
 -- Occupied --
-19.237 -19.237 -10.385  -1.161  -1.120  -0.562  -0.517  -0.513
 -0.513  -0.370  -0.370

          Ground-State Mulliken Net Atomic Charges

     Atom                 Charge (a.u.)
  ----------------------------------------
      1 C                     0.719474
      2 O                    -0.359737
      3 O                    -0.359737
  ----------------------------------------
  Sum of atomic charges =    -0.000000

                    Cartesian Multipole Moments
 -----------------------------------------------------------------
    Charge (ESU x 10^10)
                 0.0000
    Dipole Moment (Debye)
         X      -0.0000      Y      -0.0011      Z      -0.0000
       Tot       0.0011
    Quadrupole Moments (Debye-Ang)
        XX     -14.4508     XY      -0.0000     YY     -14.4508
        XZ      -0.0000     YZ      -0.0000     ZZ     -18.9144

 Total job time:  149.80s(wall), 122.40s(cpu)
        *  Thank you very much for using Q-Chem.  Have a nice day.  *
