 Q-Chem 4.2, Q-Chem, Inc., Pleasanton, CA (2014).
 Q-Chem 4.2.2 for Intel X86 EM64T Linux

User input:
--------------------------------------------------------------
$rem
 method = b3lyp
 basis = 6-31g**
 unrestricted = true
 scf_convergence = 9
 thresh = 14
 xc_grid = 000100000302
 print_general_basis = true
 print_orbitals = 34
 scf_final_print = 2
 molden_format = false
$end

$molecule
 +1 2
C      0.0000000000   -0.0003162467   -0.0000048217
O      0.0000000000    0.0001159898   -1.1691641452
O      0.0000000000    0.0001159547    1.1691546879
$end
--------------------------------------------------------------

             Standard Nuclear Orientation (Angstroms)
    I     Atom           X                Y                Z
 ----------------------------------------------------------------
    1      C       0.0000000000    -0.0003162467    -0.0000048217
    2      O       0.0000000000     0.0001159898    -1.1691641452
    3      O       0.0000000000     0.0001159547     1.1691546879
 ----------------------------------------------------------------

   13    -188.0794991832      4.22E-10 Convergence criterion met
 Total energy in the final basis set = -188.0794991832

                    Orbital Energies (a.u.)
 --------------------------------------------------------------

 Alpha MOs
 -- Occupied --
-19.674 -19.674 -10.765  -1.569  -1.536  -0.943  -0.917  -0.902
 -0.887  -0.805  -0.760

 Beta MOs
 -- Occupied --
-19.658 -19.658 -10.770  -1.538  -1.497  -0.923  -0.881  -0.879
 -0.848  -0.740

         Ground-State ChElPG Net Atomic Charges

     Atom                 Charge (a.u.)
  ----------------------------------------
      1 C                     0.826902
      2 O                     0.086553
      3 O                     0.086545
  ----------------------------------------
  Sum of atomic charges =     1.000000

                    Cartesian Multipole Moments
 -----------------------------------------------------------------
    Charge (ESU x 10^10)
                 4.8032
    Dipole Moment (Debye)
         X       0.0000      Y      -0.0013      Z      -0.0000
       Tot       0.0013
    Quadrupole Moments (Debye-Ang)
        XX     -12.9100     XY       0.0000     YY     -11.9847
        XZ       0.0000     YZ      -0.0000     ZZ     -11.2579

 Total job time:  1.86s(wall), 7.40s(cpu)
        *  Thank you very much for using Q-Chem.  Have a nice day.  *
