 Q-Chem 4.2, Q-Chem, Inc., Pleasanton, CA (2014).
 Q-Chem 4.2.2 for Intel X86 EM64T Linux

User input:
--------------------------------------------------------------
$rem
 method = b3lyp
 basis = 6-31g**
 unrestricted = false
 scf_convergence = 9
 thresh = 14
 xc_grid = 000100000302
 print_general_basis = true
 print_orbitals = 34
 scf_final_print = 2
 molden_format = false
$end

$molecule
 +1 2
C      0.0000000000   -0.0003162467   -0.0000048217
O      0.0000000000    0.0001159898   -1.1691641452
O      0.0000000000    0.0001159547    1.1691546879
$end
--------------------------------------------------------------

             Standard Nuclear Orientation (Angstroms)
    I     Atom           X                Y                Z
 ----------------------------------------------------------------
    1      C       0.0000000000    -0.0003162467    -0.0000048217
    2      O       0.0000000000     0.0001159898    -1.1691641452
    3      O       0.0000000000     0.0001159547     1.1691546879
 ----------------------------------------------------------------

   19    -188.0739579356      7.09E-10 Convergence criterion met
 Total energy in the final basis set = -188.0739579356

                    Orbital Energies (a.u.)
 --------------------------------------------------------------

 Alpha MOs
 -- Occupied --
-19.674 -19.674 -10.770  -1.568  -1.533  -0.943  -0.901  -0.888
 -0.915  -0.757  -0.795

 Beta MOs
 -- Occupied --
-19.662 -19.662 -10.770  -1.540  -1.501  -0.924  -0.884  -0.879
 -0.846  -0.743

         Ground-State ChElPG Net Atomic Charges

     Atom                 Charge (a.u.)
  ----------------------------------------
      1 C                     0.828957
      2 O                     0.085526
      3 O                     0.085518
  ----------------------------------------
  Sum of atomic charges =     1.000000

                    Cartesian Multipole Moments
 -----------------------------------------------------------------
    Charge (ESU x 10^10)
                 4.8032
    Dipole Moment (Debye)
         X      -0.0000      Y      -0.0011      Z      -0.0000
       Tot       0.0011
    Quadrupole Moments (Debye-Ang)
        XX     -11.9966     XY       0.0000     YY     -12.9098
        XZ       0.0000     YZ      -0.0000     ZZ     -11.2730

 Total job time:  3.26s(wall), 12.85s(cpu)
        *  Thank you very much for using Q-Chem.  Have a nice day.  *
