 Q-Chem 4.3, Q-Chem, Inc., Pleasanton, CA (2015)
 Q-Chem 4.3.0 for Intel X86 EM64T Linux

User input:
--------------------------------------------------------------
$rem
 jobtype = opt
 method = b3lyp
 basis = cc-pvdz
 frgm_method = gia
 frgm_lpcorr = 0
 scf_print_frgm = false
$end

$molecule
-1 1
--
0 1
O      2.0046718567   -0.0940911795   -0.0000456417
H      2.0989955585    0.8620675220   -0.0000086873
H      1.0186881803   -0.1989910837   -0.0000610506
--
-1 1
Cl    -1.1264842195    0.0053780533   -0.0000197660
$end
--------------------------------------------------------------

   10    -536.7043183405      8.79E-09 Convergence criterion met
 Total energy in the final basis set = -536.7043183405
   10    -536.7052919176      2.34E-09 Convergence criterion met
 Total energy in the final basis set = -536.7052919176
   10    -536.7056712764      3.02E-09 Convergence criterion met
 Total energy in the final basis set = -536.7056712764
   10    -536.7058147369      1.25E-09 Convergence criterion met
 Total energy in the final basis set = -536.7058147369
   10    -536.7058832701      1.55E-09 Convergence criterion met
 Total energy in the final basis set = -536.7058832701
   10    -536.7059891837      4.83E-09 Convergence criterion met
 Total energy in the final basis set = -536.7059891837
   10    -536.7061170193      5.80E-09 Convergence criterion met
 Total energy in the final basis set = -536.7061170193
   10    -536.7061662450      5.28E-09 Convergence criterion met
 Total energy in the final basis set = -536.7061662450
   10    -536.7061727191      2.87E-09 Convergence criterion met
 Total energy in the final basis set = -536.7061727191
   10    -536.7061743073      2.77E-09 Convergence criterion met
 Total energy in the final basis set = -536.7061743073

             Standard Nuclear Orientation (Angstroms)
    I     Atom           X                Y                Z
 ----------------------------------------------------------------
    1      O       2.0915742182    -0.0596724512    -0.0000093743
    2      H       1.9107181762     0.8921208890     0.0000002069
    3      H       1.1697794708    -0.3780370043    -0.0000051847
    4      Cl     -1.1769667993     0.1200454001    -0.0000023337
 ----------------------------------------------------------------

   11    -536.7061743406      1.81E-09 Convergence criterion met
 Total energy in the final basis set = -536.7061743406
 Final energy is   -536.70617434061785
 **  OPTIMIZATION CONVERGED  **

                    Orbital Energies (a.u.)
 --------------------------------------------------------------

 Alpha MOs
 -- Occupied --
-18.948  -0.818  -0.322  -0.204  -0.117-101.188  -9.101  -6.858
 -6.858  -6.858  -0.449  -0.001   0.003   0.004

          Ground-State Mulliken Net Atomic Charges

     Atom                 Charge (a.u.)
  ----------------------------------------
      1 O                    -0.333820
      2 H                     0.123908
      3 H                     0.209912
      4 Cl                   -1.000000
  ----------------------------------------
  Sum of atomic charges =    -1.000000

                    Cartesian Multipole Moments
 -----------------------------------------------------------------
    Charge (ESU x 10^10)
                -4.8032
    Dipole Moment (Debye)
         X       3.3153      Y       0.3426      Z       0.0000
       Tot       3.3329
    Quadrupole Moments (Debye-Ang)
        XX     -35.8538     XY       3.0983     YY     -20.2069
        XZ       0.0000     YZ       0.0000     ZZ     -22.3193

 Total job time:  32.49s(wall), 25.68s(cpu)
        *  Thank you very much for using Q-Chem.  Have a nice day.  *
