 Q-Chem 4.3, Q-Chem, Inc., Pleasanton, CA (2015)
 Q-Chem 4.3.0 for Intel X86 EM64T Linux

User input:
--------------------------------------------------------------
$rem
 jobtype = sp
 method = b3lyp
 basis = cc-pvdz
 frgm_method = gia
 frgm_lpcorr = 0
 scf_print_frgm = true
$end

$molecule
-1 1
--
0 1
O      2.0046718567   -0.0940911795   -0.0000456417
H      2.0989955585    0.8620675220   -0.0000086873
H      1.0186881803   -0.1989910837   -0.0000610506
--
-1 1
Cl    -1.1264842195    0.0053780533   -0.0000197660
$end
--------------------------------------------------------------

 Q-Chem 4.3, Q-Chem, Inc., Pleasanton, CA (2015)
 Q-Chem 4.3.0 for Intel X86 EM64T Linux

User input:
--------------------------------------------------------------
$molecule
0 1
 8	2.0045014740	-0.0939781001	0.0000017004
 1	2.0987398960	0.8621890110	-0.0000023237
 1	1.0185271576	-0.1989659440	-0.0000163614
$end
$rem
METHOD		B3LYP
BASIS		CC-PVDZ
SCF_PRINT_FRGM		TRUE
!required keywords
JOBTYPE		SP
SYM_IGNORE		TRUE
SUBSYSTEM		TRUE
SAVE_SUBSYSTEM		TRUE
PURECART		11
$end
--------------------------------------------------------------

    7     -76.4200973746      8.02E-07 Convergence criterion met
 Total energy in the final basis set = -76.4200973746
 Total job time:  0.55s(wall), 0.57s(cpu)
        *  Thank you very much for using Q-Chem.  Have a nice day.  *
 Q-Chem 4.3, Q-Chem, Inc., Pleasanton, CA (2015)
 Q-Chem 4.3.0 for Intel X86 EM64T Linux

User input:
--------------------------------------------------------------
$molecule
-1 1
 17	-1.1266634615	0.0052118667	0.0000002989
$end
$rem
METHOD		B3LYP
BASIS		CC-PVDZ
SCF_PRINT_FRGM		TRUE
!required keywords
JOBTYPE		SP
SYM_IGNORE		TRUE
SUBSYSTEM		TRUE
SAVE_SUBSYSTEM		TRUE
PURECART		11
$end
--------------------------------------------------------------

             Standard Nuclear Orientation (Angstroms)
    I     Atom           X                Y                Z
 ----------------------------------------------------------------
    1      Cl     -1.1266634615     0.0052118667     0.0000002989
 ----------------------------------------------------------------

    6    -460.2665685942      6.65E-06 Convergence criterion met
 Total energy in the final basis set = -460.2665685942

 STANDARD THERMODYNAMIC QUANTITIES AT   298.15 K  AND     1.00 ATM

   Translational Enthalpy:        0.889 kcal/mol
   Rotational Enthalpy:           0.000 kcal/mol
   Vibrational Enthalpy:          0.000 kcal/mol
   gas constant (RT):             0.592 kcal/mol
   Translational Entropy:        36.586  cal/mol.K
   Rotational Entropy:            0.000  cal/mol.K
   Vibrational Entropy:           0.000  cal/mol.K

   Total Enthalpy:                1.481 kcal/mol
   Total Entropy:                36.586  cal/mol.K

 Total job time:  0.23s(wall), 0.23s(cpu)
        *  Thank you very much for using Q-Chem.  Have a nice day.  *
    6    -536.7043180991      9.89E-06 Convergence criterion met
 Total energy in the final basis set = -536.7043180991

                    Orbital Energies (a.u.)
 --------------------------------------------------------------

 Alpha MOs
 -- Occupied --
-18.937  -0.803  -0.316  -0.187  -0.107-101.191  -9.105  -6.862
 -6.861  -6.861  -0.453  -0.006   0.000   0.001

          Ground-State Mulliken Net Atomic Charges

     Atom                 Charge (a.u.)
  ----------------------------------------
      1 O                    -0.350980
      2 H                     0.102936
      3 H                     0.248044
      4 Cl                   -1.000000
  ----------------------------------------
  Sum of atomic charges =    -1.000000

                    Cartesian Multipole Moments
 -----------------------------------------------------------------
    Charge (ESU x 10^10)
                -4.8032
    Dipole Moment (Debye)
         X       3.2305      Y       1.2185      Z      -0.0000
       Tot       3.4527
    Quadrupole Moments (Debye-Ang)
        XX     -33.8072     XY       3.2387     YY     -20.5620
        XZ      -0.0000     YZ       0.0000     ZZ     -22.3240

 Total job time:  2.05s(wall), 1.13s(cpu)
        *  Thank you very much for using Q-Chem.  Have a nice day.  *
