 Q-Chem 4.3, Q-Chem, Inc., Pleasanton, CA (2015)
 Q-Chem 4.3.0 for Intel X86 EM64T Linux

User input:
--------------------------------------------------------------
$rem
 jobtype = sp
 method = ccsd(t)
 basis = cc-pvdz
 frgm_method = gia
 frgm_lpcorr = 0
 scf_print_frgm = true
$end

$molecule
-1 1
--
0 1
O      2.0046718567   -0.0940911795   -0.0000456417
H      2.0989955585    0.8620675220   -0.0000086873
H      1.0186881803   -0.1989910837   -0.0000610506
--
-1 1
Cl    -1.1264842195    0.0053780533   -0.0000197660
$end
--------------------------------------------------------------

 Q-Chem 4.3, Q-Chem, Inc., Pleasanton, CA (2015)
 Q-Chem 4.3.0 for Intel X86 EM64T Linux

User input:
--------------------------------------------------------------
$molecule
0 1
 8	2.0045014740	-0.0939781001	0.0000017004
 1	2.0987398960	0.8621890110	-0.0000023237
 1	1.0185271576	-0.1989659440	-0.0000163614
$end
$rem
METHOD		CCSD(T)
BASIS		CC-PVDZ
SCF_PRINT_FRGM		TRUE
!required keywords
JOBTYPE		SP
SYM_IGNORE		TRUE
SUBSYSTEM		TRUE
SAVE_SUBSYSTEM		TRUE
PURECART		11
$end
--------------------------------------------------------------

   11     -76.0247137818      5.79E-09 Convergence criterion met
 Total energy in the final basis set = -76.0247137818
 CCSD total energy           = -76.23959921
 CCSD(T) total energy       = -76.24277636
 Total job time:  2.81s(wall), 2.86s(cpu)
        *  Thank you very much for using Q-Chem.  Have a nice day.  *
 Q-Chem 4.3, Q-Chem, Inc., Pleasanton, CA (2015)
 Q-Chem 4.3.0 for Intel X86 EM64T Linux

User input:
--------------------------------------------------------------
$molecule
-1 1
 17	-1.1266634615	0.0052118667	0.0000002989
$end
$rem
METHOD		CCSD(T)
BASIS		CC-PVDZ
SCF_PRINT_FRGM		TRUE
!required keywords
JOBTYPE		SP
SYM_IGNORE		TRUE
SUBSYSTEM		TRUE
SAVE_SUBSYSTEM		TRUE
PURECART		11
$end
--------------------------------------------------------------

             Standard Nuclear Orientation (Angstroms)
    I     Atom           X                Y                Z
 ----------------------------------------------------------------
    1      Cl     -1.1266634615     0.0052118667     0.0000002989
 ----------------------------------------------------------------

   10    -459.5422203156      2.58E-09 Convergence criterion met
 Total energy in the final basis set = -459.5422203156
 CCSD total energy           = -459.69338669
 CCSD(T) total energy       = -459.69470422

 STANDARD THERMODYNAMIC QUANTITIES AT   298.15 K  AND     1.00 ATM

   Translational Enthalpy:        0.889 kcal/mol
   Rotational Enthalpy:           0.000 kcal/mol
   Vibrational Enthalpy:          0.000 kcal/mol
   gas constant (RT):             0.592 kcal/mol
   Translational Entropy:        36.586  cal/mol.K
   Rotational Entropy:            0.000  cal/mol.K
   Vibrational Entropy:           0.000  cal/mol.K

   Total Enthalpy:                1.481 kcal/mol
   Total Entropy:                36.586  cal/mol.K

 Total job time:  2.25s(wall), 2.27s(cpu)
        *  Thank you very much for using Q-Chem.  Have a nice day.  *
   11    -535.5845796316      3.24E-09 Convergence criterion met
 Total energy in the final basis set = -535.5845796316
 CCSD total energy           = -536.42500332
 CCSD(T) total energy       = -536.43317924

                    Orbital Energies (a.u.)
 --------------------------------------------------------------

 Alpha MOs
 -- Occupied --
-20.365  -1.146  -0.501  -0.390  -0.311-104.486 -10.208  -7.675
 -7.674  -7.674  -0.726  -0.151  -0.143  -0.142

          Ground-State Mulliken Net Atomic Charges

     Atom                 Charge (a.u.)
  ----------------------------------------
      1 O                    -0.410012
      2 H                     0.129798
      3 H                     0.280215
      4 Cl                   -1.000000
  ----------------------------------------
  Sum of atomic charges =    -1.000000

                    Cartesian Multipole Moments
 -----------------------------------------------------------------
    Charge (ESU x 10^10)
                -4.8032
    Dipole Moment (Debye)
         X       3.1232      Y       1.3277      Z      -0.0000
       Tot       3.3937
    Quadrupole Moments (Debye-Ang)
        XX     -34.2192     XY       3.5078     YY     -20.5977
        XZ      -0.0000     YZ       0.0000     ZZ     -22.5206

 Total job time:  19.89s(wall), 14.85s(cpu)
        *  Thank you very much for using Q-Chem.  Have a nice day.  *
