 Q-Chem 4.3, Q-Chem, Inc., Pleasanton, CA (2015)
 Q-Chem 4.3.0 for Intel X86 EM64T Linux

User input:
--------------------------------------------------------------
$rem
 method = hf
 basis = 3-21g
 scf_convergence = 10
 thresh = 14
$end

$molecule
read molecule_neutral
$end

--------------------------------------------------------------

   14    -151.1876079416      7.69E-11 Convergence criterion met
 Total energy in the final basis set = -151.1876079416
 Total job time:  0.32s(wall), 0.66s(cpu)
        *  Thank you very much for using Q-Chem.  Have a nice day.  *

User input: 2 of 2

/home/eric/opt/apps/qchem/trunk_gcc_release_r19341_20151031/exe/qcprog.exe .read_molecule.in.10694.qcin.2 /tmp/qchem/qchem10694/

Process 0 of 1 is on copper - thread support 0
initial socket setup ...start
initial socket setup ...done
now start server 0 ...
                  Welcome to Q-Chem
     A Quantum Leap Into The Future Of Chemistry

 Q-Chem 4.3, Q-Chem, Inc., Pleasanton, CA (2015)

 Y. Shao,  Z. Gan,  E. Epifanovsky,  A. T. B. Gilbert,  M. Wormit,
 J. Kussmann,  A. W. Lange,  A. Behn,  J. Deng,  X. Feng,  D. Ghosh,
 M. Goldey,  P. R. Horn,  L. D. Jacobson,  I. Kaliman,  R. Z. Khaliullin,
 T. Kus,  A. Landau,  J. Liu,  E. I. Proynov,  Y. M. Rhee,  R. M. Richard,
 M. A. Rohrdanz,  R. P. Steele,  E. J. Sundstrom,  H. L. Woodcock III,
 P. M. Zimmerman,  D. Zuev,  B. Albrecht,  E. Alguire,  B. Austin,
 S. A. Baeppler,  G. J. O. Beran,  Y. A. Bernard,  E. Berquist,
 K. Brandhorst,  K. B. Bravaya,  S. T. Brown,  D. Casanova,  C.-M. Chang,
 Y. Chen,  S. H. Chien,  K. D. Closser,  D. L. Crittenden,  M. Diedenhofen,
 R. A. DiStasio Jr.,  H. Do,  A. D. Dutoi,  R. G. Edgar,  P.-T. Fang,
 S. Fatehi,  Q. Feng,  L. Fusti-Molnar,  A. Ghysels,
 A. Golubeva-Zadorozhnaya,  J. Gomes,  A. Gunina,  M. W. D. Hanson-Heine,
 P. H. P. Harbach,  A. W. Hauser,  E. G. Hohenstein,  Z. C. Holden,  K. Hui,
 T.-C. Jagau,  H. Ji,  B. Kaduk,  K. Khistyaev,  Jaehoon Kim,  Jihan Kim,
 R. A. King,  P. Klunzinger,  D. Kosenkov,  T. Kowalczyk,  C. M. Krauter,
 K. U. Lao,  A. Laurent,  K. V. Lawler,  S. Lehtola,  S. V. Levchenko,
 C. Y. Lin,  Y.-S. Lin,  F. Liu,  E. Livshits,  R. C. Lochan,  A. Luenser,
 P. Manohar,  S. F. Manzer,  S.-P. Mao,  N. Mardirossian,  A. V. Marenich,
 L. A. Martinez-Martinez,  S. A. Maurer,  N. J. Mayhall,  K. Nanda,
 C. M. Oana,  R. Olivares-Amaya,  D. P. O'Neill,  J. A. Parkhill,
 T. M. Perrine,  R. Peverati,  P. A. Pieniazek,  F. Plasser,  A. Prociuk,
 D. R. Rehn,  E. Rosta,  N. J. Russ,  N. Sergueev,  S. M. Sharada,
 S. Sharma,  D. W. Small,  A. Sodt,  T. Stauch,  T. Stein,  D. Stuck,
 Y.-C. Su,  A. J. W. Thom,  T. Tsuchimochi,  L. Vogt,  O. Vydrov,  T. Wang,
 M. A. Watson,  J. Wenzel,  A. White,  C. F. Williams,  V. Vanovschi,
 S. Yeganeh,  S. R. Yost,  Z.-Q. You,  I. Y. Zhang,  X. Zhang,  Y. Zhao,
 B. R. Brooks,  G. K. L. Chan,  D. M. Chipman,  C. J. Cramer,
 W. A. Goddard III,  M. S. Gordon,  W. J. Hehre,  A. Klamt,
 H. F. Schaefer III,  M. W. Schmidt,  C. D. Sherrill,  D. G. Truhlar,
 A. Warshel,  X. Xu,  A. Aspuru-Guzik,  R. Baer,  A. T. Bell,  N. A. Besley,
 J.-D. Chai,  A. Dreuw,  B. D. Dunietz,  T. R. Furlani,  S. R. Gwaltney,
 C.-P. Hsu,  Y. Jung,  J. Kong,  D. S. Lambrecht,  W. Liang,  C. Ochsenfeld,
 V. A. Rassolov,  L. V. Slipchenko,  J. E. Subotnik,  T. Van Voorhis,
 J. M. Herbert,  A. I. Krylov,  P. M. W. Gill,  M. Head-Gordon

 Contributors to earlier versions of Q-Chem not listed above:
 R. D. Adamson,  J. Baker,  E. F. C. Byrd,  A. K. Chakraborty,  C.-L. Cheng,
 H. Dachsel,  R. J. Doerksen,  G. Hawkins,  A. Heyden,  S. Hirata,
 G. Kedziora,  F. J. Keil,  C. Kelley,  P. P. Korambath,  W. Kurlancheek,
 A. M. Lee,  M. S. Lee,  D. Liotard,  I. Lotan,  P. E. Maslen,  N. Nair,
 D. Neuhauser,  R. Olson,  B. Peters,  J. Ritchie,  N. E. Schultz,
 N. Shenvi,  A. C. Simmonett,  K. S. Thanthiriwatte,  Q. Wu,  W. Zhang

 Please cite Q-Chem as follows:
 Y. Shao et al., Mol. Phys. 113, 184-215 (2015)
 DOI: 10.1080/00268976.2014.952696

 Q-Chem 4.3.0 for Intel X86 EM64T Linux

 Parts of Q-Chem use Armadillo 5.200.1 (Boston Tea Smuggler).
 http://arma.sourceforge.net/

 Q-Chem begins on Sat Jan 23 13:19:39 2016

copper
Host: 0

     Scratch files written to /tmp/qchem/qchem10694//
 Parallel job on  1  processors

Checking the input file for inconsistencies... 	...done.

--------------------------------------------------------------
User input:
--------------------------------------------------------------

$rem
 method = hf
 basis = 6-31g
 scf_convergence = 10
 thresh = 14
 scf_guess = read
$end

$molecule
read molecule_cation
$end
--------------------------------------------------------------

             Standard Nuclear Orientation (Angstroms)
    I     Atom           X                Y                Z
 ----------------------------------------------------------------
    1      H      -0.5596989552     0.0357358296    -0.0000000000
    2      O      -1.5120945103    -0.1206953267     0.0000000000
    3      O       1.3931364000     0.1177545793    -0.0000000000
    4      H      -1.8875213197     0.7615510735    -0.0000000000
    5      H       1.6994425787    -0.3868804620     0.7580000000
    6      H       1.6994425787    -0.3868804620    -0.7580000000
 ----------------------------------------------------------------

   16    -151.6114076543      5.68E-11 Convergence criterion met
 Total energy in the final basis set = -151.6114076543

             Orbital Energies (a.u.) and Symmetries
 --------------------------------------------------------------

 Alpha MOs, Unrestricted
 -- Occupied --
-21.094 -20.786  -1.885  -1.574  -1.180  -1.089  -1.054  -0.924
  1 A'    2 A'    3 A'    4 A'    5 A'    1 A"    6 A'    2 A"
 -0.791  -0.724
  7 A'    8 A'

 Beta MOs, Unrestricted
 -- Occupied --
-21.049 -20.786  -1.726  -1.574  -1.138  -0.993  -0.924  -0.791
  1 A'    2 A'    3 A'    4 A'    5 A'    6 A'    1 A"    7 A'
 -0.725
  8 A'

          Ground-State Mulliken Net Atomic Charges

     Atom                 Charge (a.u.)    Spin (a.u.)
  --------------------------------------------------------
      1 H                     0.541514      -0.044123
      2 O                    -0.158406       1.100056
      3 O                    -0.825547      -0.003971
      4 H                     0.538409      -0.052451
      5 H                     0.452015       0.000245
      6 H                     0.452015       0.000245
  --------------------------------------------------------
  Sum of atomic charges =     1.000000

                    Cartesian Multipole Moments
 -----------------------------------------------------------------
    Charge (ESU x 10^10)
                 4.8032
    Dipole Moment (Debye)
         X      -3.2552      Y      -0.0617      Z      -0.0000
       Tot       3.2558
    Quadrupole Moments (Debye-Ang)
        XX       1.2689     XY      -8.4833     YY     -10.5487
        XZ       0.0000     YZ       0.0000     ZZ      -8.7554

 Total job time:  0.45s(wall), 0.94s(cpu)
        *  Thank you very much for using Q-Chem.  Have a nice day.  *
